   * xtb version 6.7.0 (08769fc) compiled by 'albert@albert-system' on 2024-03-04

   ID    Z sym.   atoms
    1    5 B      1
    2    7 N      2, 9
    3    6 C      3-8, 10-12
    4    9 F      13, 14
    5    1 H      15-21

          program call               : xtb crest_best.xyz --gfn 2 --opt vtight --parallel 4
          :  Hamiltonian                  GFN2-xTB          :
 * total energy  :   -39.5229831 Eh     change       -0.4065726E-09 Eh
 * total energy  :   -39.5296736 Eh     change       -0.6690511E-02 Eh
 * total energy  :   -39.5305347 Eh     change       -0.8610497E-03 Eh
 * total energy  :   -39.5306068 Eh     change       -0.7217906E-04 Eh
 * total energy  :   -39.5306331 Eh     change       -0.2622548E-04 Eh
 * total energy  :   -39.5306349 Eh     change       -0.1798542E-05 Eh
 * total energy  :   -39.5306336 Eh     change        0.1240713E-05 Eh
 * total energy  :   -39.5306351 Eh     change       -0.1492319E-05 Eh
 * total energy  :   -39.5306352 Eh     change       -0.3701854E-07 Eh
   *** GEOMETRY OPTIMIZATION CONVERGED AFTER 9 ITERATIONS ***

 final structure:
================
21
 xtb: 6.7.0 (08769fc)
B            0.00017702547114       -1.16278300758150       -0.00066745582212
N            1.24627061273776       -0.24052716815861        0.00156683326844
C            2.51751016718841       -0.61857106195354        0.00312179552443
C            3.35655455317452        0.50528058989949        0.00287962869207
C            2.53997009715796        1.61256448083341        0.00070384955847
C            1.20516205259512        1.13862599607688        0.00014173749418
C           -0.00032304841497        1.82113886290758       -0.00086056016971
C           -1.20556889601404        1.13823115177159       -0.00003278571764
N           -1.24621954616455       -0.24093939120406        0.00141150110296
C           -2.51733119656370       -0.61939495552925        0.00279339346127
C           -3.35674880643504        0.50418227224421        0.00240880679564
C           -2.54053645941108        1.61173106081800        0.00032937542529
F            0.00024382828561       -1.95252177517873        1.12653597519940
F            0.00037878254792       -1.94636075684075       -1.13235955411530
H            2.78211959574293       -1.65870958034460        0.00449248995480
H            4.42824695964868        0.48432192858323        0.00408458591224
H            2.83029821730682        2.64483513379815       -0.00008583811622
H           -0.00050328004935        2.90076584426171       -0.00216023668259
H           -2.78159953233566       -1.65962084112531        0.00415081215104
H           -4.42843611467985        0.48287175548703        0.00346040370419
H           -2.83120516788862        2.64390648123507       -0.00052439102083

          :  Hamiltonian                  GFN2-xTB          :
         :: total energy             -39.530635154349 Eh    ::
         :: gradient norm              0.000095840118 Eh/a0 ::
         :: HOMO-LUMO gap              1.790766099553 eV    ::
         :: SCC energy               -40.051269672335 Eh    ::
         :: -> dispersion             -0.021117115658 Eh    ::
         :: repulsion energy           0.520634517986 Eh    ::

    * Orbital Energies and Occupations

         #    Occupation            Energy/Eh            Energy/eV
      -------------------------------------------------------------
         1        2.0000           -0.7666289             -20.8610
       ...           ...                  ...                  ...
        23        2.0000           -0.4915153             -13.3748
        24        2.0000           -0.4822048             -13.1215
        25        2.0000           -0.4771553             -12.9841
        26        2.0000           -0.4754777             -12.9384
        27        2.0000           -0.4686723             -12.7532
        28        2.0000           -0.4596379             -12.5074
        29        2.0000           -0.4548469             -12.3770
        30        2.0000           -0.4459697             -12.1355
        31        2.0000           -0.4437220             -12.0743
        32        2.0000           -0.4336688             -11.8007
        33        2.0000           -0.4263876             -11.6026
        34        2.0000           -0.4261761             -11.5968
        35        2.0000           -0.3983677             -10.8401 (HOMO)
        36                         -0.3325582              -9.0494 (LUMO)
        37                         -0.2169157              -5.9026
        38                         -0.1937135              -5.2712
        39                         -0.1792401              -4.8774
        40                         -0.1358536              -3.6968
        41                          0.0412068               1.1213
        42                          0.0442726               1.2047
        43                          0.0825917               2.2474
        44                          0.0957867               2.6065
        45                          0.1149769               3.1287
        46                          0.1327604               3.6126
       ...                                ...                  ...
        63                          0.6890033              18.7487
      -------------------------------------------------------------
                  HL-Gap            0.0658094 Eh            1.7908 eV

     #   Z          covCN         q      C6AA      α(0)
     1   5 B        3.111     0.522    14.272     6.301
     2   7 N        2.748    -0.092    23.041     7.129
     3   6 C        3.076     0.044    26.927     8.508
     4   6 C        3.035    -0.051    29.233     8.868
     5   6 C        3.036    -0.043    29.021     8.836
     6   6 C        3.133     0.049    26.703     8.459
     7   6 C        2.900    -0.018    28.451     8.746
     8   6 C        3.133     0.049    26.703     8.459
     9   7 N        2.748    -0.092    23.041     7.129
    10   6 C        3.076     0.044    26.927     8.508
    11   6 C        3.035    -0.051    29.233     8.868
    12   6 C        3.036    -0.043    29.021     8.836
    13   9 F        0.722    -0.369    13.147     4.282
    14   9 F        0.722    -0.369    13.148     4.282
    15   1 H        0.926     0.072     2.058     2.244
    16   1 H        0.926     0.051     2.312     2.378
    17   1 H        0.926     0.050     2.316     2.380
    18   1 H        0.926     0.073     2.050     2.239
    19   1 H        0.926     0.072     2.058     2.244
    20   1 H        0.926     0.051     2.312     2.378
    21   1 H        0.926     0.050     2.316     2.380

Wiberg/Mayer (AO) data.
largest (>0.10) Wiberg bond orders for each atom

     #   Z sym  total        # sym  WBO       # sym  WBO       # sym  WBO
 ---------------------------------------------------------------------------
     1   5 B    3.388 --    13 F    0.874    14 F    0.874     2 N    0.794
                             9 N    0.794
     2   7 N    3.615 --     3 C    1.416     6 C    1.150     1 B    0.794
     3   6 C    3.930 --     2 N    1.416     4 C    1.329    15 H    0.966
     4   6 C    3.961 --     5 C    1.535     3 C    1.329    16 H    0.973
     5   6 C    3.954 --     4 C    1.535     6 C    1.248    17 H    0.972
     6   6 C    3.964 --     7 C    1.372     5 C    1.248     2 N    1.150
     7   6 C    3.986 --     8 C    1.372     6 C    1.372    18 H    0.962
     8   6 C    3.964 --     7 C    1.372    12 C    1.248     9 N    1.150
     9   7 N    3.615 --    10 C    1.416     8 C    1.150     1 B    0.794
    10   6 C    3.930 --     9 N    1.416    11 C    1.329    19 H    0.966
    11   6 C    3.961 --    12 C    1.535    10 C    1.329    20 H    0.973
    12   6 C    3.954 --    11 C    1.535     8 C    1.248    21 H    0.972
    13   9 F    0.973 --     1 B    0.874
    14   9 F    0.973 --     1 B    0.874
    15   1 H    0.994 --     3 C    0.966
    16   1 H    0.997 --     4 C    0.973
    17   1 H    0.997 --     5 C    0.972
    18   1 H    0.994 --     7 C    0.962
    19   1 H    0.994 --    10 C    0.966
    20   1 H    0.997 --    11 C    0.973
    21   1 H    0.997 --    12 C    0.972
 ---------------------------------------------------------------------------

molecular dipole:
                 x           y           z       tot (Debye)
 q only:       -0.000       1.887       0.005
   full:       -0.000       1.976       0.005       5.023

           -------------------------------------------------
          | TOTAL ENERGY              -39.530635154349 Eh   |
          | GRADIENT NORM               0.000095840118 Eh/α |
          | HOMO-LUMO GAP               1.790766099553 eV   |
           -------------------------------------------------

 * finished run on 2024/05/20 at 09:48:59.828
